# vtk DataFile Version 3.0
vtk output
ASCII
DATASET UNSTRUCTURED_GRID
POINTS 3153 double
2.250000e+00 2.000000e+00 1.750000e+00
2.265625e+00 1.875000e+00 1.734375e+00
2.218750e+00 2.000000e+00 1.750000e+00
2.232422e+00 1.875000e+00 1.734375e+00
2.281250e+00 1.750000e+00 1.718750e+00
2.246094e+00 1.750000e+00 1.718750e+00
2.210938e+00 1.750000e+00 1.718750e+00
2.199219e+00 1.875000e+00 1.734375e+00
2.187500e+00 2.000000e+00 1.750000e+00
2.296875e+00 1.625000e+00 1.703125e+00
2.259766e+00 1.625000e+00 1.703125e+00
2.312500e+00 1.500000e+00 1.687500e+00
2.273438e+00 1.500000e+00 1.687500e+00
2.234375e+00 1.500000e+00 1.687500e+00
2.222656e+00 1.625000e+00 1.703125e+00
2.328125e+00 1.375000e+00 1.671875e+00
2.287109e+00 1.375000e+00 1.671875e+00
2.343750e+00 1.250000e+00 1.656250e+00
2.300781e+00 1.250000e+00 1.656250e+00
2.257812e+00 1.250000e+00 1.656250e+00
2.246094e+00 1.375000e+00 1.671875e+00
2.359375e+00 1.125000e+00 1.640625e+00
2.314453e+00 1.125000e+00 1.640625e+00
2.375000e+00 1.000000e+00 1.625000e+00
2.328125e+00 1.000000e+00 1.625000e+00
2.281250e+00 1.000000e+00 1.625000e+00
2.269531e+00 1.125000e+00 1.640625e+00
2.390625e+00 8.750000e-01 1.609375e+00
2.341797e+00 8.750000e-01 1.609375e+00
2.406250e+00 7.500000e-01 1.593750e+00
2.355469e+00 7.500000e-01 1.593750e+00
2.304688e+00 7.500000e-01 1.593750e+00
2.292969e+00 8.750000e-01 1.609375e+00
2.421875e+00 6.250000e-01 1.578125e+00
2.369141e+00 6.250000e-01 1.578125e+00
2.437500e+00 5.000000e-01 1.562500e+00
2.382812e+00 5.000000e-01 1.562500e+00
2.328125e+00 5.000000e-01 1.562500e+00
2.316406e+00 6.250000e-01 1.578125e+00
2.453125e+00 3.750000e-01 1.546875e+00
2.396484e+00 3.750000e-01 1.546875e+00
2.468750e+00 2.500000e-01 1.531250e+00
2.410156e+00 2.500000e-01 1.531250e+00
2.351562e+00 2.500000e-01 1.531250e+00
2.339844e+00 3.750000e-01 1.546875e+00
2.484375e+00 1.250000e-01 1.515625e+00
2.423828e+00 1.250000e-01 1.515625e+00
2.500000e+00 0.000000e+00 1.500000e+00
2.437500e+00 0.000000e+00 1.500000e+00
2.375000e+00 0.000000e+00 1.500000e+00
2.363281e+00 1.250000e-01 1.515625e+00
2.156250e+00 2.000000e+00 1.750000e+00
2.166016e+00 1.875000e+00 1.734375e+00
2.175781e+00 1.750000e+00 1.718750e+00
2.140625e+00 1.750000e+00 1.718750e+00
2.132812e+00 1.875000e+00 1.734375e+00
2.125000e+00 2.000000e+00 1.750000e+00
2.185547e+00 1.625000e+00 1.703125e+00
2.195312e+00 1.500000e+00 1.687500e+00
2.156250e+00 1.500000e+00 1.687500e+00
2.148438e+00 1.625000e+00 1.703125e+00
2.205078e+00 1.375000e+00 1.671875e+00
2.214844e+00 1.250000e+00 1.656250e+00
2.171875e+00 1.250000e+00 1.656250e+00
2.164062e+00 1.375000e+00 1.671875e+00
2.224609e+00 1.125000e+00 1.640625e+00
2.234375e+00 1.000000e+00 1.625000e+00
2.187500e+00 1.000000e+00 1.625000e+00
2.179688e+00 1.125000e+00 1.640625e+00
2.244141e+00 8.750000e-01 1.609375e+00
2.253906e+00 7.500000e-01 1.593750e+00
2.203125e+00 7.500000e-01 1.593750e+00
2.195312e+00 8.750000e-01 1.609375e+00
2.263672e+00 6.250000e-01 1.578125e+00
2.273438e+00 5.000000e-01 1.562500e+00
2.218750e+00 5.000000e-01 1.562500e+00
2.210938e+00 6.250000e-01 1.578125e+00
2.283203e+00 3.750000e-01 1.546875e+00
2.292969e+00 2.500000e-01 1.531250e+00
2.234375e+00 2.500000e-01 1.531250e+00
2.226562e+00 3.750000e-01 1.546875e+00
2.302734e+00 1.250000e-01 1.515625e+00
2.312500e+00 0.000000e+00 1.500000e+00
2.250000e+00 0.000000e+00 1.500000e+00
2.242188e+00 1.250000e-01 1.515625e+00
2.093750e+00 2.000000e+00 1.750000e+00
2.099609e+00 1.875000e+00 1.734375e+00
2.105469e+00 1.750000e+00 1.718750e+00
2.070312e+00 1.750000e+00 1.718750e+00
2.066406e+00 1.875000e+00 1.734375e+00
2.062500e+00 2.000000e+00 1.750000e+00
2.111328e+00 1.625000e+00 1.703125e+00
2.117188e+00 1.500000e+00 1.687500e+00
2.078125e+00 1.500000e+00 1.687500e+00
2.074219e+00 1.625000e+00 1.703125e+00
2.123047e+00 1.375000e+00 1.671875e+00
2.128906e+00 1.250000e+00 1.656250e+00
2.085938e+00 1.250000e+00 1.656250e+00
2.082031e+00 1.375000e+00 1.671875e+00
2.134766e+00 1.125000e+00 1.640625e+00
2.140625e+00 1.000000e+00 1.625000e+00
2.093750e+00 1.000000e+00 1.625000e+00
2.089844e+00 1.125000e+00 1.640625e+00
2.146484e+00 8.750000e-01 1.609375e+00
2.152344e+00 7.500000e-01 1.593750e+00
2.101562e+00 7.500000e-01 1.593750e+00
2.097656e+00 8.750000e-01 1.609375e+00
2.158203e+00 6.250000e-01 1.578125e+00
2.164062e+00 5.000000e-01 1.562500e+00
2.109375e+00 5.000000e-01 1.562500e+00
2.105469e+00 6.250000e-01 1.578125e+00
2.169922e+00 3.750000e-01 1.546875e+00
2.175781e+00 2.500000e-01 1.531250e+00
2.117188e+00 2.500000e-01 1.531250e+00
2.113281e+00 3.750000e-01 1.546875e+00
2.181641e+00 1.250000e-01 1.515625e+00
2.187500e+00 0.000000e+00 1.500000e+00
2.125000e+00 0.000000e+00 1.500000e+00
2.121094e+00 1.250000e-01 1.515625e+00
2.031250e+00 2.000000e+00 1.750000e+00
2.033203e+00 1.875000e+00 1.734375e+00
2.035156e+00 1.750000e+00 1.718750e+00
2.000000e+00 1.750000e+00 1.718750e+00
2.000000e+00 1.875000e+00 1.734375e+00
2.000000e+00 2.000000e+00 1.750000e+00
2.037109e+00 1.625000e+00 1.703125e+00
2.039062e+00 1.500000e+00 1.687500e+00
2.000000e+00 1.500000e+00 1.687500e+00
2.000000e+00 1.625000e+00 1.703125e+00
2.041016e+00 1.375000e+00 1.671875e+00
2.042969e+00 1.250000e+00 1.656250e+00
2.000000e+00 1.250000e+00 1.656250e+00
2.000000e+00 1.375000e+00 1.671875e+00
2.044922e+00 1.125000e+00 1.640625e+00
2.046875e+00 1.000000e+00 1.625000e+00
2.000000e+00 1.000000e+00 1.625000e+00
2.000000e+00 1.125000e+00 1.640625e+00
2.048828e+00 8.750000e-01 1.609375e+00
2.050781e+00 7.500000e-01 1.593750e+00
2.000000e+00 7.500000e-01 1.593750e+00
2.000000e+00 8.750000e-01 1.609375e+00
2.052734e+00 6.250000e-01 1.578125e+00
2.054688e+00 5.000000e-01 1.562500e+00
2.000000e+00 5.000000e-01 1.562500e+00
2.000000e+00 6.250000e-01 1.578125e+00
2.056641e+00 3.750000e-01 1.546875e+00
2.058594e+00 2.500000e-01 1.531250e+00
2.000000e+00 2.500000e-01 1.531250e+00
2.000000e+00 3.750000e-01 1.546875e+00
2.060547e+00 1.250000e-01 1.515625e+00
2.062500e+00 0.000000e+00 1.500000e+00
2.000000e+00 0.000000e+00 1.500000e+00
2.000000e+00 1.250000e-01 1.515625e+00
1.968750e+00 2.000000e+00 1.750000e+00
1.966797e+00 1.875000e+00 1.734375e+00
1.964844e+00 1.750000e+00 1.718750e+00
1.929688e+00 1.750000e+00 1.718750e+00
1.933594e+00 1.875000e+00 1.734375e+00
1.937500e+00 2.000000e+00 1.750000e+00
1.962891e+00 1.625000e+00 1.703125e+00
1.960938e+00 1.500000e+00 1.687500e+00
1.921875e+00 1.500000e+00 1.687500e+00
1.925781e+00 1.625000e+00 1.703125e+00
1.958984e+00 1.375000e+00 1.671875e+00
1.957031e+00 1.250000e+00 1.656250e+00
1.914062e+00 1.250000e+00 1.656250e+00
1.917969e+00 1.375000e+00 1.671875e+00
1.955078e+00 1.125000e+00 1.640625e+00
1.953125e+00 1.000000e+00 1.625000e+00
1.906250e+00 1.000000e+00 1.625000e+00
1.910156e+00 1.125000e+00 1.640625e+00
1.951172e+00 8.750000e-01 1.609375e+00
1.949219e+00 7.500000e-01 1.593750e+00
1.898438e+00 7.500000e-01 1.593750e+00
1.902344e+00 8.750000e-01 1.609375e+00
1.947266e+00 6.250000e-01 1.578125e+00
1.945312e+00 5.000000e-01 1.562500e+00
1.890625e+00 5.000000e-01 1.562500e+00
1.894531e+00 6.250000e-01 1.578125e+00
1.943359e+00 3.750000e-01 1.546875e+00
1.941406e+00 2.500000e-01 1.531250e+00
1.882812e+00 2.500000e-01 1.531250e+00
1.886719e+00 3.750000e-01 1.546875e+00
1.939453e+00 1.250000e-01 1.515625e+00
1.937500e+00 0.000000e+00 1.500000e+00
1.875000e+00 0.000000e+00 1.500000e+00
1.878906e+00 1.250000e-01 1.515625e+00
1.906250e+00 2.000000e+00 1.750000e+00
1.900391e+00 1.875000e+00 1.734375e+00
1.894531e+00 1.750000e+00 1.718750e+00
1.859375e+00 1.750000e+00 1.718750e+00
1.867188e+00 1.875000e+00 1.734375e+00
1.875000e+00 2.000000e+00 1.750000e+00
1.888672e+00 1.625000e+00 1.703125e+00
1.882812e+00 1.500000e+00 1.687500e+00
1.843750e+00 1.500000e+00 1.687500e+00
1.851562e+00 1.625000e+00 1.703125e+00
1.876953e+00 1.375000e+00 1.671875e+00
1.871094e+00 1.250000e+00 1.656250e+00
1.828125e+00 1.250000e+00 1.656250e+00
1.835938e+00 1.375000e+00 1.671875e+00
1.865234e+00 1.125000e+00 1.640625e+00
1.859375e+00 1.000000e+00 1.625000e+00
1.812500e+00 1.000000e+00 1.625000e+00
1.820312e+00 1.125000e+00 1.640625e+00
1.853516e+00 8.750000e-01 1.609375e+00
1.847656e+00 7.500000e-01 1.593750e+00
1.796875e+00 7.500000e-01 1.593750e+00
1.804688e+00 8.750000e-01 1.609375e+00
1.841797e+00 6.250000e-01 1.578125e+00
1.835938e+00 5.000000e-01 1.562500e+00
1.781250e+00 5.000000e-01 1.562500e+00
1.789062e+00 6.250000e-01 1.578125e+00
1.830078e+00 3.750000e-01 1.546875e+00
1.824219e+00 2.500000e-01 1.531250e+00
1.765625e+00 2.500000e-01 1.531250e+00
1.773438e+00 3.750000e-01 1.546875e+00
1.818359e+00 1.250000e-01 1.515625e+00
1.812500e+00 0.000000e+00 1.500000e+00
1.750000e+00 0.000000e+00 1.500000e+00
1.757812e+00 1.250000e-01 1.515625e+00
1.843750e+00 2.000000e+00 1.750000e+00
1.833984e+00 1.875000e+00 1.734375e+00
1.824219e+00 1.750000e+00 1.718750e+00
1.789062e+00 1.750000e+00 1.718750e+00
1.800781e+00 1.875000e+00 1.734375e+00
1.812500e+00 2.000000e+00 1.750000e+00
1.814453e+00 1.625000e+00 1.703125e+00
1.804688e+00 1.500000e+00 1.687500e+00
1.765625e+00 1.500000e+00 1.687500e+00
1.777344e+00 1.625000e+00 1.703125e+00
1.794922e+00 1.375000e+00 1.671875e+00
1.785156e+00 1.250000e+00 1.656250e+00
1.742188e+00 1.250000e+00 1.656250e+00
1.753906e+00 1.375000e+00 1.671875e+00
1.775391e+00 1.125000e+00 1.640625e+00
1.765625e+00 1.000000e+00 1.625000e+00
1.718750e+00 1.000000e+00 1.625000e+00
1.730469e+00 1.125000e+00 1.640625e+00
1.755859e+00 8.750000e-01 1.609375e+00
1.746094e+00 7.500000e-01 1.593750e+00
1.695312e+00 7.500000e-01 1.593750e+00
1.707031e+00 8.750000e-01 1.609375e+00
1.736328e+00 6.250000e-01 1.578125e+00
1.726562e+00 5.000000e-01 1.562500e+00
1.671875e+00 5.000000e-01 1.562500e+00
1.683594e+00 6.250000e-01 1.578125e+00
1.716797e+00 3.750000e-01 1.546875e+00
1.707031e+00 2.500000e-01 1.531250e+00
1.648438e+00 2.500000e-01 1.531250e+00
1.660156e+00 3.750000e-01 1.546875e+00
1.697266e+00 1.250000e-01 1.515625e+00
1.687500e+00 0.000000e+00 1.500000e+00
1.625000e+00 0.000000e+00 1.500000e+00
[...]
POINT_DATA 3153
SCALARS u double 1
LOOKUP_TABLE default
-1.053e-05
1.007e-05
-9.206e-06
1.158e-05
-4.180e-06
-2.345e-06
4.126e-07
9.737e-06
-8.043e-06
-9.815e-06
-8.189e-06
-1.290e-05
-1.121e-05
-9.462e-06
-6.878e-06
-1.433e-05
-1.256e-05
-1.523e-05
-1.338e-05
-1.152e-05
-1.083e-05
-1.597e-05
-1.404e-05
-1.672e-05
-1.471e-05
-1.268e-05
-1.209e-05
-1.754e-05
-1.547e-05
-1.841e-05
-1.628e-05
-1.409e-05
-1.335e-05
-1.920e-05
-1.703e-05
-1.964e-05
-1.746e-05
-1.520e-05
-1.479e-05
-1.913e-05
-1.704e-05
-1.704e-05
-1.491e-05
-1.267e-05
-1.484e-05
-1.096e-05
-9.044e-06
-9.279e-07
-9.887e-07
-8.751e-07
-7.592e-06
-7.019e-06
7.260e-06
2.008e-06
2.381e-06
4.983e-06
-6.087e-06
-5.230e-06
-7.912e-06
-6.380e-06
-3.624e-06
-9.044e-06
-9.661e-06
-7.787e-06
-7.294e-06
-1.013e-05
-1.063e-05
-8.567e-06
-8.161e-06
-1.121e-05
-1.186e-05
-9.586e-06
-9.046e-06
-1.248e-05
-1.287e-05
-1.047e-05
-1.012e-05
-1.254e-05
-1.060e-05
-8.662e-06
-1.021e-05
-6.255e-06
-7.068e-07
-5.206e-07
-5.133e-06
-5.276e-06
3.052e-06
1.984e-06
1.185e-06
1.343e-06
-4.283e-06
-2.387e-06
-4.815e-06
-3.285e-06
-1.547e-06
-5.570e-06
-5.903e-06
-4.020e-06
-3.833e-06
-6.182e-06
-6.486e-06
-4.393e-06
-4.191e-06
-6.855e-06
-7.278e-06
-4.937e-06
-4.643e-06
-7.700e-06
-7.988e-06
-5.450e-06
-5.238e-06
-7.859e-06
-6.776e-06
-4.922e-06
-5.446e-06
-4.318e-06
-2.710e-07
1.912e-08
-3.595e-06
-3.255e-06
-1.787e-07
1.796e-07
-9.163e-07
-1.554e-06
-2.333e-06
-9.952e-07
-1.829e-06
-4.266e-07
-5.902e-07
-2.079e-06
-2.133e-06
-2.423e-07
-3.180e-07
-2.196e-06
-2.291e-06
-1.825e-07
-1.993e-07
-2.417e-06
-2.572e-06
-1.928e-07
-1.823e-07
-2.739e-06
-2.878e-06
-2.702e-07
-2.159e-07
-2.933e-06
-3.022e-06
-8.008e-07
-3.856e-07
-2.677e-06
1.430e-07
1.477e-07
-1.583e-06
-1.355e-06
-2.909e-06
-2.007e-06
-2.988e-06
-4.368e-06
-3.274e-07
-1.899e-07
9.669e-07
2.400e-06
3.422e-07
1.439e-06
1.647e-06
3.530e-06
3.184e-06
1.796e-06
1.926e-06
4.028e-06
3.789e-06
2.054e-06
2.190e-06
4.567e-06
4.284e-06
2.317e-06
2.365e-06
5.005e-06
4.845e-06
2.194e-06
1.631e-06
4.069e-06
4.834e-06
2.849e-07
6.513e-08
1.416e-07
2.872e-06
8.382e-07
-6.029e-06
-3.737e-06
-4.091e-06
-7.888e-06
2.026e-06
1.138e-06
3.894e-06
5.421e-06
2.304e-06
4.907e-06
5.405e-06
7.277e-06
6.616e-06
5.775e-06
6.121e-06
8.201e-06
7.748e-06
6.501e-06
6.926e-06
9.258e-06
8.700e-06
7.354e-06
7.640e-06
1.024e-05
9.830e-06
7.480e-06
6.637e-06
9.158e-06
1.014e-05
4.911e-06
2.254e-07
3.014e-07
6.238e-06
3.166e-06
-9.961e-06
-3.736e-06
-2.297e-06
-1.206e-05
4.154e-06
3.814e-06
6.924e-06
8.444e-06
5.392e-06
8.344e-06
9.137e-06
1.098e-05
1.010e-05
9.708e-06
1.027e-05
1.231e-05
1.166e-05
1.088e-05
1.156e-05
1.382e-05
1.303e-05
1.226e-05
1.279e-05
1.527e-05
1.462e-05
1.278e-05
1.141e-05
1.359e-05
1.534e-05
7.653e-06
3.712e-07
5.726e-07
9.227e-06
4.957e-06
-1.353e-05
2.122e-07
1.991e-06
-1.213e-05
5.958e-06
6.683e-06
1.015e-05
1.181e-05
8.239e-06
1.181e-05
1.282e-05
1.465e-05
1.355e-05
1.359e-05
1.434e-05
1.634e-05
1.551e-05
1.515e-05
1.603e-05
1.819e-05
1.723e-05
1.693e-05
1.765e-05
1.992e-05
1.916e-05
1.771e-05
1.596e-05
1.830e-05
1.991e-05
1.050e-05
9.754e-07
1.166e-06
1.193e-05
5.074e-06
-1.485e-05
4.678e-06
-1.837e-05
4.582e-07
2.685e-06
1.526e-06
-2.189e-05
3.275e-06
6.298e-06
6.920e-06
9.757e-06
8.418e-06
7.170e-06
7.088e-06
1.145e-05
8.649e-06
1.261e-05
8.777e-06
5.891e-06
6.501e-06
1.360e-05
9.042e-06
1.462e-05
9.514e-06
5.713e-06
5.637e-06
1.573e-05
1.023e-05
1.694e-05
1.124e-05
6.973e-06
6.142e-06
1.820e-05
1.255e-05
1.936e-05
1.404e-05
9.851e-06
8.253e-06
1.985e-05
1.512e-05
1.830e-05
1.434e-05
1.065e-05
1.112e-05
1.232e-05
8.742e-06
1.194e-06
9.904e-07
6.017e-07
6.308e-06
2.077e-06
-2.365e-05
-1.158e-06
-3.716e-06
-2.329e-05
1.147e-06
6.449e-06
5.934e-06
4.634e-06
4.993e-06
4.756e-06
3.739e-06
2.138e-06
3.258e-06
3.163e-06
2.983e-06
1.117e-06
1.428e-06
3.201e-06
3.874e-06
1.713e-06
1.194e-06
5.043e-06
6.568e-06
4.026e-06
2.708e-06
7.810e-06
7.518e-06
5.015e-06
5.149e-06
4.834e-06
3.986e-07
3.011e-07
3.702e-06
2.578e-07
-2.098e-05
-5.256e-06
-5.699e-06
-1.685e-05
-8.521e-07
3.023e-06
3.180e-06
1.522e-06
9.406e-07
1.920e-06
9.323e-07
-2.182e-09
6.876e-07
2.618e-07
-7.621e-08
-7.747e-07
-4.951e-07
-8.365e-08
2.844e-07
-6.014e-07
-8.225e-07
1.055e-06
2.101e-06
6.375e-07
-8.991e-08
2.996e-06
3.183e-06
1.664e-06
1.283e-06
2.319e-06
2.775e-07
1.630e-07
1.165e-06
-1.999e-06
-1.145e-05
-5.181e-06
-4.089e-06
-5.297e-06
-2.916e-06
-1.075e-06
-2.775e-07
-2.132e-06
-2.978e-06
-4.943e-07
-7.591e-07
-1.425e-06
-1.651e-06
-9.871e-07
-1.146e-06
-1.350e-06
-1.346e-06
-1.203e-06
-1.125e-06
-1.457e-06
-1.398e-06
-8.865e-07
-5.199e-07
-1.492e-06
-1.500e-06
-8.789e-08
2.052e-07
-1.043e-06
-1.345e-06
4.623e-07
2.881e-08
-3.051e-08
-4.379e-07
-3.655e-06
1.050e-06
-2.893e-06
-2.088e-06
7.023e-06
-4.202e-06
-4.817e-06
-3.948e-06
-5.639e-06
-6.642e-06
-2.791e-06
-2.083e-06
-2.817e-06
-3.927e-06
-1.697e-06
-1.544e-06
-1.884e-06
-2.167e-06
-1.577e-06
-1.768e-06
-2.224e-06
-1.910e-06
-2.082e-06
-2.431e-06
-3.475e-06
-2.790e-06
-2.604e-06
-2.246e-06
-3.618e-06
-3.972e-06
-1.483e-06
-5.295e-08
-1.186e-07
-2.428e-06
-4.889e-06
1.211e-05
-2.112e-06
-3.183e-06
1.571e-05
-5.987e-06
-8.413e-06
-7.130e-06
-8.395e-06
-9.949e-06
-5.094e-06
-3.716e-06
-4.879e-06
-6.349e-06
-2.890e-06
-2.530e-06
-3.652e-06
-4.012e-06
-2.570e-06
-2.997e-06
-4.267e-06
-3.737e-06
-3.784e-06
-4.761e-06
-6.431e-06
-5.220e-06
-5.536e-06
-5.343e-06
-7.439e-06
-7.372e-06
-3.246e-06
-2.693e-07
-4.051e-07
-4.436e-06
-7.466e-06
1.725e-05
-5.115e-06
-6.939e-06
1.611e-05
-8.671e-06
-1.093e-05
-9.498e-06
-1.055e-05
-1.114e-05
-7.763e-06
-6.437e-06
-8.552e-06
-9.438e-06
-5.695e-06
-5.429e-06
-8.055e-06
-8.113e-06
-5.603e-06
-6.226e-06
-9.079e-06
-8.373e-06
-7.278e-06
-8.592e-06
-1.139e-05
-1.014e-05
-9.654e-06
-9.547e-06
-1.178e-05
-1.239e-05
-6.893e-06
-4.505e-07
-4.790e-07
-9.707e-06
-1.001e-05
1.299e-05
-7.170e-06
-1.064e-05
-1.165e-05
-1.154e-05
-1.141e-05
-1.146e-05
-1.174e-05
-1.227e-05
-1.305e-05
-1.403e-05
-1.501e-05
-1.550e-05
-1.442e-05
-1.110e-05
-7.314e-07
9.632e-07
0.000e+00
0.000e+00
0.000e+00
0.000e+00
5.570e-07
3.419e-07
5.613e-32
9.504e-31
0.000e+00
0.000e+00
2.727e-07
2.484e-07
0.000e+00
0.000e+00
0.000e+00
-2.496e-33
2.327e-07
9.344e-08
0.000e+00
0.000e+00
0.000e+00
0.000e+00
5.837e-08
-1.128e-08
0.000e+00
0.000e+00
0.000e+00
4.312e-32
-1.572e-07
-1.927e-07
-1.718e-33
0.000e+00
0.000e+00
0.000e+00
-2.094e-07
-3.592e-07
-1.394e-31
2.393e-30
0.000e+00
0.000e+00
-5.985e-07
-9.574e-07
-2.383e-33
0.000e+00
-9.811e-07
-1.306e-06
-1.338e-06
0.000e+00
1.228e-32
-2.891e-32
0.000e+00
-3.396e-30
1.224e-29
0.000e+00
0.000e+00
0.000e+00
0.000e+00
5.314e-34
0.000e+00
1.607e-34
0.000e+00
0.000e+00
0.000e+00
0.000e+00
0.000e+00
0.000e+00
0.000e+00
0.000e+00
0.000e+00
0.000e+00
0.000e+00
-1.114e-30
3.703e-30
0.000e+00
2.361e-32
1.104e-32
0.000e+00
-5.107e-07
-7.190e-07
0.000e+00
0.000e+00
0.000e+00
0.000e+00
-8.121e-31
-4.311e-30
0.000e+00
0.000e+00
0.000e+00
0.000e+00
6.650e-34
6.882e-35
0.000e+00
0.000e+00
0.000e+00
0.000e+00
0.000e+00
0.000e+00
-3.155e-35
3.116e-33
0.000e+00
0.000e+00
0.000e+00
0.000e+00
2.472e-29
-1.582e-31
0.000e+00
0.000e+00
0.000e+00
-2.616e-39
-3.901e-08
-2.628e-07
0.000e+00
-1.271e-35
0.000e+00
0.000e+00
6.794e-32
-3.033e-31
0.000e+00
0.000e+00
3.303e-36
-7.767e-36
2.882e-35
0.000e+00
0.000e+00
0.000e+00
0.000e+00
0.000e+00
-1.290e-35
-4.151e-41
0.000e+00
0.000e+00
0.000e+00
0.000e+00
0.000e+00
0.000e+00
2.253e-29
-1.348e-29
0.000e+00
0.000e+00
0.000e+00
0.000e+00
7.352e-08
4.827e-08
0.000e+00
1.336e-32
4.147e-32
0.000e+00
3.553e-30
-1.775e-31
5.843e-31
0.000e+00
0.000e+00
-1.724e-34
2.212e-33
0.000e+00
0.000e+00
2.306e-41
-4.101e-41
0.000e+00
-4.307e-34
1.055e-39
-4.695e-32
0.000e+00
0.000e+00
-3.781e-26
1.354e-32
0.000e+00
-7.135e-30
1.432e-29
-8.590e-27
0.000e+00
0.000e+00
4.756e-32
4.116e-08
2.957e-08
0.000e+00
0.000e+00
0.000e+00
0.000e+00
2.750e-30
-5.236e-34
0.000e+00
0.000e+00
0.000e+00
0.000e+00
2.210e-34
0.000e+00
0.000e+00
0.000e+00
0.000e+00
0.000e+00
0.000e+00
0.000e+00
0.000e+00
0.000e+00
0.000e+00
-1.350e-39
0.000e+00
0.000e+00
-3.254e-29
1.041e-29
0.000e+00
0.000e+00
0.000e+00
0.000e+00
2.711e-07
2.082e-07
-2.844e-34
-5.170e-34
0.000e+00
0.000e+00
-1.658e-31
-5.801e-30
5.329e-35
0.000e+00
1.606e-34
0.000e+00
-1.038e-33
0.000e+00
-1.471e-34
0.000e+00
0.000e+00
0.000e+00
0.000e+00
0.000e+00
0.000e+00
-4.090e-33
0.000e+00
-7.590e-34
0.000e+00
0.000e+00
5.551e-31
4.375e-31
-4.130e-31
0.000e+00
-1.191e-32
-1.996e-32
5.633e-07
3.978e-07
0.000e+00
0.000e+00
2.129e-31
0.000e+00
0.000e+00
0.000e+00
0.000e+00
0.000e+00
0.000e+00
0.000e+00
0.000e+00
0.000e+00
3.148e-31
0.000e+00
6.563e-31
9.247e-07
0.000e+00
0.000e+00
0.000e+00
-1.355e-31
0.000e+00
1.935e-30
0.000e+00
0.000e+00
-4.615e-34
0.000e+00
0.000e+00
0.000e+00
-1.286e-30
8.939e-32
-6.737e-35
4.111e-30
-6.117e-30
3.425e-33
0.000e+00
-3.717e-38
0.000e+00
-3.212e-33
0.000e+00
9.768e-36
0.000e+00
-3.187e-36
0.000e+00
8.313e-35
-2.568e-34
1.281e-32
3.422e-33
0.000e+00
0.000e+00
8.474e-33
-8.130e-35
-1.432e-32
1.273e-38
0.000e+00
0.000e+00
-4.387e-35
0.000e+00
-4.809e-36
0.000e+00
0.000e+00
-4.269e-35
0.000e+00
-2.717e-33
0.000e+00
0.000e+00
-4.488e-33
0.000e+00
0.000e+00
-5.801e-32
1.763e-29
-3.153e-31
5.395e-33
0.000e+00
1.279e-37
1.841e-29
0.000e+00
1.128e-34
0.000e+00
0.000e+00
2.391e-32
-1.869e-32
0.000e+00
0.000e+00
4.349e-33
0.000e+00
-7.429e-34
-1.441e-29
6.093e-32
1.850e-32
0.000e+00
-9.235e-32
-3.128e-32
-2.806e-33
0.000e+00
0.000e+00
-1.594e-31
0.000e+00
0.000e+00
6.126e-34
-1.004e-31
0.000e+00
0.000e+00
0.000e+00
0.000e+00
-2.127e-31
0.000e+00
0.000e+00
-4.806e-32
0.000e+00
8.196e-29
0.000e+00
1.357e-31
6.637e-33
0.000e+00
0.000e+00
4.870e-38
-6.889e-33
9.056e-34
0.000e+00
-4.358e-31
0.000e+00
-1.645e-31
0.000e+00
0.000e+00
1.404e-32
0.000e+00
0.000e+00
3.066e-29
-2.293e-30
0.000e+00
1.190e-32
-5.323e-33
1.808e-37
-1.104e-32
4.659e-33
0.000e+00
-2.236e-39
0.000e+00
0.000e+00
6.784e-37
-2.149e-36
-3.128e-35
0.000e+00
0.000e+00
0.000e+00
0.000e+00
0.000e+00
0.000e+00
0.000e+00
0.000e+00
0.000e+00
0.000e+00
-8.270e-35
3.514e-33
0.000e+00
7.730e-37
0.000e+00
0.000e+00
0.000e+00
-1.783e-37
-5.460e-37
0.000e+00
-8.290e-35
0.000e+00
0.000e+00
-7.666e-38
-7.373e-34
-1.626e-38
1.059e-34
-1.177e-39
0.000e+00
-2.186e-34
0.000e+00
-9.844e-35
0.000e+00
1.755e-41
0.000e+00
0.000e+00
0.000e+00
0.000e+00
0.000e+00
-3.004e-39
1.113e-35
0.000e+00
0.000e+00
4.696e-36
0.000e+00
-7.927e-37
-9.862e-35
1.195e-33
-1.179e-36
6.923e-36
-3.807e-34
0.000e+00
0.000e+00
0.000e+00
-1.339e-33
0.000e+00
0.000e+00
5.144e-06
-1.526e-05
3.994e-06
2.350e-06
-1.932e-05
3.470e-06
8.341e-06
1.016e-05
8.479e-06
7.858e-06
1.055e-05
1.072e-05
7.647e-06
8.095e-06
1.095e-05
1.134e-05
7.555e-06
7.461e-06
1.195e-05
1.282e-05
8.798e-06
7.981e-06
1.396e-05
1.520e-05
1.153e-05
1.003e-05
1.603e-05
1.558e-05
1.274e-05
1.286e-05
1.011e-05
8.863e-06
1.886e-06
-2.215e-05
-1.230e-06
-5.053e-06
-2.325e-05
5.111e-07
6.503e-06
6.705e-06
4.795e-06
4.307e-06
5.962e-06
5.222e-06
3.283e-06
4.016e-06
4.816e-06
4.757e-06
2.752e-06
2.843e-06
5.082e-06
5.853e-06
3.766e-06
3.039e-06
7.095e-06
8.683e-06
6.473e-06
4.950e-06
1.015e-05
1.024e-05
8.137e-06
7.868e-06
7.736e-06
6.357e-06
-6.417e-07
-2.290e-05
-8.009e-06
-9.691e-06
-2.138e-05
-1.655e-06
1.576e-06
2.704e-06
4.394e-07
-1.305e-06
2.195e-06
1.693e-06
3.479e-07
4.627e-07
1.383e-06
1.357e-06
4.058e-07
2.917e-07
1.657e-06
2.335e-06
1.379e-06
7.534e-07
3.405e-06
4.740e-06
3.363e-06
2.285e-06
5.950e-06
6.290e-06
4.640e-06
4.285e-06
4.844e-06
3.348e-06
-2.807e-06
-1.871e-05
-1.016e-05
-9.815e-06
-1.475e-05
-4.225e-06
-4.073e-06
-1.916e-06
-4.253e-06
-6.599e-06
-1.205e-06
-8.303e-07
-1.910e-06
-2.813e-06
-5.596e-07
-2.575e-07
-7.809e-07
-1.289e-06
1.572e-07
7.228e-07
2.039e-07
-2.951e-07
1.436e-06
2.202e-06
1.146e-06
7.042e-07
2.819e-06
2.976e-06
1.377e-06
1.415e-06
2.246e-06
1.121e-06
-4.889e-06
-9.605e-06
-9.138e-06
-8.586e-06
-3.385e-06
-6.392e-06
-8.843e-06
-6.472e-06
-8.457e-06
-1.085e-05
-4.347e-06
-2.959e-06
-4.049e-06
-5.809e-06
-2.010e-06
-1.309e-06
-1.987e-06
-2.834e-06
-7.634e-07
-3.393e-07
-1.068e-06
-1.408e-06
-5.595e-08
6.273e-08
-1.178e-06
-9.904e-07
2.754e-11
-2.266e-07
-1.870e-06
-1.513e-06
-1.624e-07
-1.654e-06
-7.680e-06
2.763e-06
-8.348e-06
-8.756e-06
8.052e-06
-8.250e-06
-1.266e-05
-1.010e-05
-1.137e-05
-1.406e-05
-7.232e-06
-5.255e-06
-6.666e-06
-8.666e-06
-3.884e-06
-2.965e-06
-4.400e-06
-5.294e-06
-2.392e-06
-2.147e-06
-3.749e-06
-3.886e-06
-2.254e-06
-2.693e-06
-4.623e-06
-4.006e-06
-3.257e-06
-3.519e-06
-5.351e-06
-5.319e-06
-3.326e-06
-4.638e-06
-8.307e-06
1.186e-05
-9.881e-06
-1.095e-05
1.351e-05
-8.795e-06
-1.469e-05
-1.238e-05
-1.328e-05
-1.429e-05
-1.018e-05
-8.403e-06
-1.062e-05
-1.185e-05
-7.216e-06
-6.460e-06
-9.328e-06
-9.814e-06
-6.073e-06
-6.059e-06
-9.276e-06
-9.148e-06
-6.423e-06
-7.107e-06
-1.031e-05
-9.697e-06
-7.793e-06
-7.543e-06
-1.015e-05
-1.078e-05
-5.349e-06
-5.967e-06
-1.002e-05
1.265e-05
-1.020e-05
-5.779e-06
1.084e-05
-1.073e-05
-1.311e-05
-1.414e-05
-1.502e-05
-1.171e-05
-1.385e-05
-1.350e-05
-1.725e-05
-1.646e-05
-1.327e-05
-1.320e-05
-1.830e-05
-1.780e-05
-1.332e-05
-1.362e-05
-1.935e-05
-1.883e-05
-1.405e-05
-1.441e-05
-1.970e-05
-1.973e-05
-1.441e-05
-1.302e-05
-1.617e-05
-1.875e-05
-7.486e-06
-9.294e-06
-9.630e-06
-8.851e-06
-8.634e-06
-8.906e-06
-7.840e-06
-6.719e-06
-6.869e-06
-7.880e-06
-5.606e-06
-4.563e-06
-4.697e-06
-5.772e-06
-3.526e-06
-2.441e-06
-2.520e-06
-3.629e-06
-1.314e-06
-1.786e-07
-2.776e-07
-1.389e-06
9.618e-07
2.122e-06
1.776e-06
7.790e-07
3.238e-06
4.215e-06
3.378e-06
2.680e-06
4.921e-06
3.645e-06
-7.712e-06
-7.694e-06
-6.556e-06
-6.437e-06
-7.263e-06
-6.530e-06
-5.901e-06
-6.371e-06
-5.628e-06
-4.648e-06
-4.437e-06
-5.227e-06
-3.640e-06
-2.621e-06
-2.731e-06
-3.591e-06
-1.603e-06
-6.202e-07
-1.085e-06
-1.886e-06
2.969e-07
1.112e-06
2.457e-07
-3.614e-07
1.770e-06
2.161e-06
8.848e-07
6.815e-07
2.178e-06
8.103e-07
-5.313e-06
-5.473e-06
-4.528e-06
-4.438e-06
-5.425e-06
-5.147e-06
-4.366e-06
-4.519e-06
-4.689e-06
-4.115e-06
-3.729e-06
-4.090e-06
-3.481e-06
-2.830e-06
-2.904e-06
-3.323e-06
-2.196e-06
-1.609e-06
-2.144e-06
-2.502e-06
-1.100e-06
-7.021e-07
-1.650e-06
-1.852e-06
-4.479e-07
-3.533e-07
-1.555e-06
-1.553e-06
-4.270e-07
-1.602e-06
-3.639e-06
-3.676e-06
-2.797e-06
-2.802e-06
-3.655e-06
-3.585e-06
-2.793e-06
-2.785e-06
-3.465e-06
-3.306e-06
-2.857e-06
-2.820e-06
-3.128e-06
-2.948e-06
-2.963e-06
-2.904e-06
-2.786e-06
-2.658e-06
-3.137e-06
-3.038e-06
-2.579e-06
-2.558e-06
-3.413e-06
-3.261e-06
-2.602e-06
-2.700e-06
-3.768e-06
-3.585e-06
-2.817e-06
-3.917e-06
-1.846e-06
-1.826e-06
-7.601e-07
-7.681e-07
-1.860e-06
-1.971e-06
-1.113e-06
-8.696e-07
-2.154e-06
-2.388e-06
-1.908e-06
-1.470e-06
-2.658e-06
-2.949e-06
-2.912e-06
-2.397e-06
-3.256e-06
-3.573e-06
-3.965e-06
-3.439e-06
-3.893e-06
-4.209e-06
-4.949e-06
-4.474e-06
-4.508e-06
-4.760e-06
-5.718e-06
-5.371e-06
-4.932e-06
-5.960e-06
3.692e-07
3.659e-07
1.510e-06
1.480e-06
1.631e-07
-2.374e-07
6.015e-07
1.194e-06
-7.898e-07
-1.437e-06
-1.005e-06
-1.608e-07
-2.134e-06
-2.856e-06
-2.782e-06
-1.884e-06
-3.586e-06
-4.309e-06
-4.595e-06
-3.691e-06
-5.002e-06
-5.635e-06
-6.261e-06
-5.465e-06
-6.177e-06
-6.625e-06
-7.458e-06
-6.933e-06
-7.069e-06
-7.879e-06
2.590e-06
2.631e-06
3.567e-06
3.753e-06
2.132e-06
1.309e-06
1.750e-06
2.780e-06
3.477e-07
-6.443e-07
-3.658e-07
6.925e-07
-1.655e-06
-2.685e-06
-2.549e-06
-1.433e-06
-3.741e-06
-4.807e-06
-4.926e-06
-3.728e-06
-5.842e-06
-6.798e-06
-7.195e-06
-6.097e-06
-7.617e-06
-8.212e-06
-8.895e-06
-8.160e-06
-8.485e-06
-9.208e-06
4.413e-06
3.752e-06
2.882e-06
3.667e-06
2.865e-06
1.885e-06
1.694e-06
2.248e-06
9.081e-07
-1.041e-07
-6.809e-08
7.662e-07
-1.178e-06
-2.397e-06
-2.475e-06
-1.252e-06
-3.666e-06
-4.934e-06
-4.869e-06
-3.681e-06
-6.182e-06
-7.379e-06
-7.170e-06
-6.036e-06
-8.461e-06
-9.351e-06
-9.145e-06
-8.238e-06
-9.935e-06
-9.846e-06
3.327e-06
1.561e-06
-1.455e-06
-1.784e-06
8.800e-08
-1.835e-06
-5.755e-06
-4.524e-06
-1.653e-06
-1.156e-06
-3.262e-06
-8.527e-07
-2.797e-07
1.494e-06
2.971e-06
2.143e-06
4.070e-06
-2.614e-06
-4.084e-06
-3.572e-06
-3.124e-06
-3.520e-06
-2.727e-06
-3.582e-06
-2.749e-06
-1.229e-07
-3.030e-06
-3.286e-06
-2.940e-06
-3.117e-06
-6.457e-06
-5.180e-06
-3.296e-06
-3.593e-06
-2.135e-06
-2.887e-06
-3.934e-06
-2.595e-06
-4.535e-06
-2.074e-06
-1.378e-06
-3.059e-06
-4.039e-06
-1.220e-05
-1.452e-06
-1.090e-05
-1.587e-05
-1.752e-05
1.082e-06
1.358e-06
3.350e-07
-1.714e-06
-5.466e-06
-4.500e-06
-5.392e-06
-3.303e-06
-4.347e-06
-8.267e-06
-9.594e-06
-1.095e-05
-1.358e-05
-4.824e-06
-5.078e-06
-5.283e-06
-5.421e-06
-1.172e-06
-9.611e-07
-6.162e-07
-6.291e-07
-1.462e-06
-3.386e-06
-3.136e-06
-5.175e-06
-4.780e-06
-5.715e-06
-3.150e-06
-5.652e-06
-8.276e-06
-6.967e-06
-4.162e-06
-2.112e-06
-3.132e-06
-2.851e-06
-6.097e-06
-1.161e-07
-7.838e-06
-8.442e-06
-8.434e-06
-8.181e-06
-7.839e-06
-3.471e-06
-2.609e-06
-6.870e-06
-3.612e-06
-3.833e-06
-3.822e-06
-3.505e-06
-3.150e-06
-2.784e-06
-2.498e-06
-5.583e-06
-2.484e-06
-6.198e-06
-4.602e-06
-4.080e-06
-5.448e-06
-4.024e-06
-2.908e-06
-4.626e-06
-6.662e-06
-6.636e-07
-3.393e-06
-4.041e-06
-4.742e-06
-4.520e-06
1.069e-07
-2.047e-06
5.202e-07
-2.202e-06
-5.863e-06
-8.576e-06
-8.691e-06
-1.031e-05
-1.157e-05
-1.039e-05
-1.165e-05
-1.223e-05
-7.114e-06
-9.218e-06
-1.075e-05
-2.659e-06
-6.870e-06
-8.258e-06
-9.647e-06
-8.121e-06
-7.315e-06
-6.548e-06
-5.073e-06
-9.440e-07
-2.023e-06
1.712e-06
2.234e-06
3.868e-06
1.039e-06
2.847e-06
1.250e-07
4.030e-06
5.031e-06
2.031e-06
8.241e-07
-9.295e-07
-1.338e-05
-1.924e-05
-2.034e-05
-1.621e-05
-1.111e-05
-1.921e-05
-1.879e-05
-1.631e-05
-2.089e-05
-2.119e-05
-1.376e-05
-8.169e-06
-1.144e-05
-8.978e-06
-6.777e-06
6.161e-06
5.873e-06
8.246e-06
1.023e-05
9.651e-06
1.206e-05
1.253e-05
1.381e-05
1.324e-05
1.411e-05
-2.876e-07
6.480e-06
1.197e-05
1.013e-05
8.859e-06
6.834e-06
3.604e-06
1.183e-05
-3.745e-06
-9.639e-07
9.612e-06
-1.020e-05
-1.335e-05
-1.166e-05
-8.920e-06
-1.473e-05
-1.543e-05
-1.359e-05
-1.301e-05
-1.589e-05
-1.632e-05
-1.430e-05
-1.397e-05
-1.677e-05
-1.723e-05
-1.507e-05
-1.467e-05
-1.758e-05
-1.755e-05
-1.537e-05
-1.538e-05
-1.669e-05
-1.405e-05
-1.195e-05
-1.455e-05
-7.982e-06
-7.123e-06
6.855e-06
5.528e-07
8.428e-07
4.332e-06
-7.276e-06
-1.015e-05
-8.644e-06
-5.695e-06
-1.126e-05
-1.176e-05
-9.901e-06
-9.535e-06
-1.203e-05
-1.228e-05
-1.023e-05
-1.008e-05
-1.256e-05
-1.287e-05
-1.064e-05
-1.042e-05
-1.314e-05
-1.314e-05
-1.084e-05
-1.084e-05
-1.236e-05
-1.012e-05
-8.369e-06
-1.022e-05
-5.992e-06
-4.986e-06
2.201e-06
3.694e-07
-5.092e-07
3.929e-07
-4.492e-06
-7.097e-06
-5.580e-06
-3.689e-06
-7.829e-06
-8.033e-06
-6.162e-06
-6.102e-06
-8.115e-06
-8.171e-06
-6.097e-06
-6.139e-06
-8.254e-06
-8.370e-06
-6.068e-06
-6.068e-06
-8.486e-06
-8.492e-06
-6.072e-06
-6.084e-06
-8.093e-06
-6.693e-06
-5.155e-06
-5.909e-06
-4.192e-06
-3.412e-06
-1.198e-06
-1.586e-06
-2.747e-06
-2.660e-06
-3.172e-06
-4.128e-06
-2.721e-06
-2.795e-06
-4.349e-06
-4.282e-06
-2.392e-06
-2.583e-06
-4.154e-06
-4.010e-06
-1.915e-06
-2.166e-06
-3.865e-06
-3.739e-06
-1.390e-06
-1.652e-06
-3.643e-06
-3.582e-06
-1.039e-06
-1.165e-06
-3.604e-06
-3.615e-06
-1.794e-06
-1.143e-06
-2.707e-06
-2.116e-06
-4.067e-06
-3.924e-06
-5.011e-06
-5.552e-06
-2.403e-06
-1.313e-06
1.453e-07
-1.857e-06
-8.139e-07
-4.999e-07
1.388e-06
9.481e-07
-1.743e-07
1.826e-07
2.279e-06
1.819e-06
5.674e-07
9.690e-07
3.328e-06
2.784e-06
1.339e-06
1.557e-06
4.201e-06
3.850e-06
1.433e-06
5.249e-07
3.198e-06
4.097e-06
-1.171e-06
1.003e-06
-7.302e-06
-5.814e-06
-6.210e-06
-9.337e-06
-1.043e-06
1.684e-06
3.250e-06
1.851e-07
2.687e-06
3.274e-06
5.161e-06
4.413e-06
3.809e-06
4.368e-06
6.449e-06
5.788e-06
4.993e-06
5.676e-06
8.002e-06
7.187e-06
6.356e-06
6.859e-06
9.512e-06
8.837e-06
6.863e-06
5.948e-06
8.895e-06
9.632e-06
4.270e-06
6.794e-06
-1.159e-05
-5.884e-06
-4.289e-06
-1.412e-05
1.809e-06
4.771e-06
6.305e-06
3.464e-06
6.165e-06
7.038e-06
8.893e-06
7.952e-06
7.758e-06
8.518e-06
1.057e-05
9.722e-06
9.361e-06
1.030e-05
1.256e-05
1.151e-05
1.128e-05
1.212e-05
1.464e-05
1.366e-05
1.241e-05
1.169e-05
1.405e-05
1.512e-05
8.262e-06
9.528e-06